
                                 *****************
                                 * O   R   C   A *
                                 *****************

                                            #,                                       
                                            ###                                      
                                            ####                                     
                                            #####                                    
                                            ######                                   
                                           ########,                                 
                                     ,,################,,,,,                         
                               ,,#################################,,                 
                          ,,##########################################,,             
                       ,#########################################, ''#####,          
                    ,#############################################,,   '####,        
                  ,##################################################,,,,####,       
                ,###########''''           ''''###############################       
              ,#####''   ,,,,##########,,,,          '''####'''          '####       
            ,##' ,,,,###########################,,,                        '##       
           ' ,,###''''                  '''############,,,                           
         ,,##''                                '''############,,,,        ,,,,,,###''
      ,#''                                            '''#######################'''  
     '                                                          ''''####''''         
             ,#######,   #######,   ,#######,      ##                                
            ,#'     '#,  ##    ##  ,#'     '#,    #''#        ,####,    ,#,          
            ##       ##  ##   ,#'  ##            #'  '#       #'       ,# #          
            ##       ##  #######   ##           ,######,      #####,      #          
            '#,     ,#'  ##    ##  '#,     ,#' ,#      #,     #,   #      #          
             '#######'   ##     ##  '#######'  #'      '#     '####' #    #          



                #########################################################
                #                        -***-                          #
                #          Department of theory and spectroscopy        #
                #                                                       #
                #                      Frank Neese                      #
                #                                                       #
                #     Directorship, Architecture, Infrastructure        #
                #                    SHARK, DRIVERS                     #
                #        Core code/Algorithms in most modules           #
                #                                                       #
                #        Max Planck Institute fuer Kohlenforschung      #
                #                Kaiser Wilhelm Platz 1                 #
                #                 D-45470 Muelheim/Ruhr                 #
                #                      Germany                          #
                #                                                       #
                #                  All rights reserved                  #
                #                        -***-                          #
                #########################################################


                         Program Version 6.1.0  -  RELEASE   -
                                (GIT: $679e74b$)
                          ($2025-06-10 18:02:51 +0200$)


 With contributions from (in alphabetic order):
[Max-Planck-Institut fuer Kohlenforschung]                               
  Daniel Aravena         : Magnetic Suceptibility                        
  Michael Atanasov       : Ab Initio Ligand Field Theory (pilot matlab implementation)
  Alexander A. Auer      : GIAO ZORA, VPT2 properties, NMR spectrum      
  Ute Becker             : All parallelization in ORCA, NUMFREQ, NUMCALC 
  Giovanni Bistoni       : ED, misc. LED, open-shell LED, HFLD           
  Dmytro Bykov           : pre 5.0 version of the SCF Hessian            
  Marcos Casanova-Páez   : Triplet and SCS-CIS(D). UHF-(DLPNO)-IP/EA/STEOM-CCSD. UHF-CVS-IP/STEOM-CCSD   
  Vijay G. Chilkuri      : MRCI spin determinant printing, contributions to CSF-ICE 
  Pauline Colinet        : FMM embedding                                 
  Dipayan Datta          : RHF DLPNO-CCSD density                        
  Achintya Kumar Dutta   : EOM-CC, STEOM-CC                              
  Nicolas Foglia         : Exact transition moments, OPA infrastructure, MCD improvements    
  Dmitry Ganyushin       : Spin-Orbit,Spin-Spin,Magnetic field MRCI      
  Miquel Garcia-Rates    : C-PCM and meta-GGA Hessian, CCSD/C-PCM, Gaussian charge scheme 
  Tiago L. C. Gouveia    : GS-ROHF, GS-ROCIS                             
  Yang Guo               : DLPNO-NEVPT2, F12-NEVPT2, CIM, IAO-localization        
  Andreas Hansen         : Spin unrestricted coupled pair/coupled cluster methods 
  Ingolf Harden          : AUTO-CI MPn and infrastructure                
  Benjamin Helmich-Paris : MC-RPA, TRAH-(SCF,CASSCF), AVAS, COSX integrals, SCF dyn. polar., MC-PDFT, srDFT 
  Lee Huntington         : MR-EOM, pCC                                   
  Robert Izsak           : Overlap fitted RIJCOSX, COSX-SCS-MP3, EOM     
  Riya Kayal             : Wick's Theorem for AUTO-CI, AUTO-CI UHF-CCSDT 
  Emily Kempfer          : AUTO-CI RHF CISDT and CCSDT, approximate NEVPT4
  Christian Kollmar      : KDIIS, OOCD, Brueckner-CCSD(T), CCSD density, CASPT2, CASPT2-K, improved NEVPT2 
  Axel Koslowski         : Symmetry handling                             
  Simone Kossmann        : meta-GGA functionals, TD-DFT gradient, OOMP2, (MP2 Hessian; deprecated post 5.0) 
  Lucas Lang             : DCDCAS, Hyperfine gauge corrections, ICE-SOC+SSC
  Marvin Lechner         : AUTO-CI (C++ implementation), FIC-MRCC        
  Spencer Leger          : CASSCF response                               
  Dagmar Lenk            : GEPOL surface, SMD, ORCA-2-JSON               
  Dimitrios Liakos       : Extrapolation schemes; Compound Job, Property file
  Dimitrios Manganas     : Further ROCIS development; embedding schemes. LFT, Crystal Embedding 
  Dimitrios Pantazis     : SARC Basis sets                               
  Anastasios Papadopoulos: AUTO-CI, single reference methods and gradients 
  Taras Petrenko         : pre 6.0 DFT Hessian and TD-DFT gradient,  ECA, NRVS 
  Petra Pikulova         : Analytic Raman intensities                    
  Peter Pinski           : DLPNO-MP2, DLPNO-MP2 Gradient                 
  Shashank Vittal Rao    : ES-AILFT, MagRelax                            
  Christoph Reimann      : Effective Core Potentials                     
  Marius Retegan         : Local ZFS, SOC                                
  Christoph Riplinger    : Optimizer, TS searches, QM/MM, DLPNO-CCSD(T), (RO)-DLPNO pert. Triples 
  Michael Roemelt        : Original ROCIS implementation, recursive CI coupling coefficients
  Masaaki Saitow         : Open-shell DLPNO-CCSD energy and density      
  Barbara Sandhoefer     : DKH picture change effects                    
  Yorick L. A. Schmerwitz: GMF and freeze-and-release deltaSCF, NEB S-IDPP initial path                    
  Kantharuban Sivalingam : CASSCF convergence/infrastructure, NEVPT2, NEVPT3, NEVPT4(SD), FIC-MRCI and CEPA variants
  Bernardo de Souza      : ESD, SOC TD-DFT                               
  Georgi L. Stoychev     : AutoAux, RI-MP2 NMR, DLPNO-MP2 response, X2C  
  Van Anh Tran           : RI-MP2 g-tensors                              
  Willem Van den Heuvel  : Paramagnetic NMR                              
  Zikuan Wang            : NOTCH, Electric field optimization            
  Frank Wennmohs         : Technical directorship and infrastructure     
  Hang Xu                : AUTO-CI-Response properties                   
                                                                         
[FACCTs GmbH]                                                            
  Markus Bursch, Nicolas Foglia, Miquel Garcia-Rates, Ingolf Harden, Hagen Neugebauer, Anastasios Papadopoulos, 
  Christoph Riplinger, Bernardo de Souza, Georgi L. Stoychev                                                    
                                                                 
  APM, various basis sets, CI-OPT, improved COSX, DLPNO-Multilevel,           
  DOCKER, DRACO, updates on ESD, Fragmentator, GOAT, IRC, LR-CPCM, L-BFGS, MBIS, meta-GGA TD-DFT gradient, ML-optimized integration grids, 
  MM, NACMEs, nearIR, NEB, NEB-TS, NL-DFT gradient (VV10), 2- and 3-layer-ONIOM, interface openCOSMO-RS, QMMM,   
  Crystal-QMMM, RESP, rigid body optimization, SF, symmetry and pop. for TD-DFT, various functionals, SOLVATOR                                   
                                                                         
[Other institutions]                                                     
  V. Asgeirsson          : NEB                                           
  Christoph Bannwarth    : sTDA-DFT, sTD-DFT, PBEh-3c, B97-3c, D3        
  Giovanni Bistoni       : ETS/NOCV, ADLD/ADEX, COVALED                  
  Martin Brehm           : Molecular dynamics                            
  Ronald Cardenas        : ETS/NOCV                                      
  Martina Colucci        : COVALED                                       
  Sebastian Ehlert       : rSCAN, r2SCAN, r2SCAN-3c, D4, dhf basis sets  
  Marvin Friede          : D4 for Fr, Ra, Ac-Lr                          
  Lars Goerigk           : TD-DFT with DH, B97 family of functionals     
  Stefan Grimme          : VdW corrections, initial TS optimization, DFT functionals, gCP, sTDA/sTD-DF 
  Waldemar Hujo          : DFT-NL                                        
  H. Jonsson             : NEB                                           
  Holger Kruse           : gCP                                           
  Marcel Mueller         : wB97X-3c, vDZP basis set                      
  Hagen Neugebauer       : wr2SCAN, Native XTB                           
  Gianluca Regni         : ADLD/ADEX                                     
  Tobias Risthaus        : pre 6.0 range-separated hybrid DFT and stability analysis
  Lukas Wittmann         : regularized MP2, r2SCAN double-hybrids, wr2SCAN        
                                                                         
We gratefully acknowledge several colleagues who have allowed us to      
interface, adapt or use parts of their codes:                            
  Ed Valeev, F. Pavosevic, A. Kumar             : LibInt (2-el integral package), F12 methods 
  Garnet Chan, S. Sharma, J. Yang, R. Olivares  : DMRG                   
  Ulf Ekstrom                                   : XCFun DFT Library      
  Mihaly Kallay                                 : mrcc  (arbitrary order and MRCC methods)
  Frank Weinhold                                : gennbo (NPA and NBO analysis)           
  Simon Mueller                                 : openCOSMO-RS                            
  Christopher J. Cramer and Donald G. Truhlar   : smd solvation model                     
  S Lehtola, MJT Oliveira, MAL Marques          : LibXC Library                           
  Liviu Ungur et al                             : ANISO software                          


 Your calculation uses the libint2 library for the computation of 2-el integrals
 For citations please refer to: http://libint.valeyev.net

 Your ORCA version has been built with support for libXC version: 7.0.0
 For citations please refer to: https://libxc.gitlab.io

 This ORCA versions uses:
   CBLAS   interface :  Fast vector & matrix operations
   LAPACKE interface :  Fast linear algebra routines
   SCALAPACK package :  Parallel linear algebra routines
   Shared memory     :  Shared parallel matrices
   BLAS/LAPACK       :  OpenBLAS 0.3.29  USE64BITINT DYNAMIC_ARCH NO_AFFINITY Zen SINGLE_THREADED
        Core in use  :  Zen
   Copyright (c) 2011-2014, The OpenBLAS Project


  ***********************************
  * Starting time: Sun Nov 30 23:34:22 2025
  * Host name:     Klubnika
  * Process ID:    1747518
  * Working dir.:  /home/nosachea/BOCSER
  ***********************************

XCFun DFT library Copyright 2009-2010 Ulf Ekstrom and contributors.
See http://admol.org/xcfun for more information.
This is free software; see the source code for copying conditions.
There is ABSOLUTELY NO WARRANTY; not even for MERCHANTABILITY or FITNESS FOR A PARTICULAR PURPOSE.
For details see the documentation.
Scientific users of this library should cite U. Ekstrom, L. Visscher, R. Bast, A. J. Thorvaldsen and K. Ruud;
J.Chem.Theor.Comp. 2010, DOI: 10.1021/ct100117s
XCFun Version 0.99 

Warning: RI is on but no J-basis has been assigned. Assigning Def2/J (nothing to worry about!)
================================================================================

----- Orbital basis set information -----
Your calculation utilizes the basis: 6-31+G(d)
   H-He, Li-Ne : W. J. Hehre, R. Ditchfield and J.A. Pople, J. Chem. Phys. 56, 2257 (1972).
                 Note: He and Ne are unpublished basis sets taken from the Gaussian program.
                 Note: Li and B from J. D. Dill and J. A. Pople, J. Chem. Phys. 62, 2921 (1975).
   Na - Ar     : M. M. Francl, W. J. Pietro, W. J. Hehre, J. S. Binkley, M. S. Gordon, 
                 D. J. DeFrees and J. A. Pople, J. Chem. Phys. 77, 3654 (1982).
   K - Zn      : V. A. Rassolov, J. A. Pople, M. A. Ratner, and T. L. Windus, J. Chem. Phys. 109, 1223 (1998).
   Additional Pol./Diff. from the 6-311G equivalent.

----- AuxJ basis set information -----
Your calculation utilizes the auxiliary basis: def2/J
   H-Rn: F. Weigend, Phys. Chem. Chem. Phys. 8, 1057 (2006).
   Fr-Lr: K. Eichkorn, F. Weigend, O. Treutler, R. Ahlrichs; Theor. Chem. Acc. 97, 119 (1997).

================================================================================
                                        WARNINGS
                       Please study these warnings very carefully!
================================================================================

WARNING: Old DensityContainer found on disk!
         Will remove this file - 
         If you want to keep old densities, please start your calculation with a different basename. 

WARNING: Functional chosen is sensitive to the integration grid.
         DEFGRID3 seems to be a minimum grid for robust results!

WARNING: Geometry Optimization
  ===> : Switching off AutoStart
         For restart on a previous wavefunction, please use MOREAD

================================================================================
                                       INPUT FILE
================================================================================
NAME = tests/NonBR.inp
|  1> !M062X 6-31+G(d) CPCM(Water) LooseOpt opt
|  2> %pal
|  3> nprocs 8
|  4> end
|  5> * xyz 0 1
|  6>   C           2.36673495100258      2.39751108847410     -0.81357964960933
|  7>   C           3.72720069093841      3.10280962219239     -0.73661405827080
|  8>   C          -0.66484632960797      2.02667730054878     -0.91610054491217
|  9>   C           0.19706976687554      2.14407295839047     -2.17183418421137
| 10>   C           1.46871344351297      2.98087745843180     -1.90542071879798
| 11>   C           4.82936049844809      2.30310232940555     -0.03047799582045
| 12>   C           4.43165220613827      1.79180972249598      1.35471879666301
| 13>   O           3.78567014802223      0.51627253130582      1.09977751994364
| 14>   C           3.08650796232000     -0.08434240368263      2.06815556484737
| 15>   C           2.27239724614908     -1.17983916115146      1.50209177259397
| 16>   C           1.22099321726987     -1.68268065968157      2.17248641040364
| 17>   C          -1.40234117349516      0.77205654498113     -0.65003069210303
| 18>   C           0.31267391213861     -2.66966892219931      1.61261118077834
| 19>   C          -3.49180812706835     -0.46438560919826     -0.27545478966610
| 20>   C          -2.72482599646344      0.77732190413767     -0.39746702198057
| 21>   C          -0.94165726997983     -2.80822060094804      2.08535210612007
| 22>   C          -1.99608718072832     -3.59718486751081      1.44641874563068
| 23>   C          -3.24875050369848     -3.11906183343047      1.43628755270750
| 24>   C          -4.73806939925063     -0.62710769875169     -0.74642669439163
| 25>   C          -4.44190105919986     -3.71610737506652      0.75453393654204
| 26>   C          -4.74426049044383     -3.21073995292756     -0.67508197450518
| 27>   C          -5.54615860634493     -1.90201114262502     -0.75346532798404
| 28>   O           3.05347465071463      0.29902351346256      3.22542993843631
| 29>   O          -0.82608607163823      3.01084231418494     -0.19670665298273
| 30>   C           5.65264529075528      1.59581292923539      2.24476454677111
| 31>   C           0.50997470351264      0.81008594847133     -2.85256905342758
| 32>   H          -5.26829739531058      0.25607087916637     -1.10747829765067
| 33>   O           1.14449733951292      4.34331516978052     -1.63970632367453
| 34>   H          -2.90977291560851     -1.32808257265649      0.03637251539658
| 35>   O          -5.52065885330533     -4.26254475665883     -1.25584626809285
| 36>   H          -3.43517677845518     -2.21481393045936      2.01890186873954
| 37>   H           0.63525149438010     -3.22104745938766      0.72942077908289
| 38>   H           1.85172342471272      2.43681659610089      0.15640846385970
| 39>   H           2.52847796700964      1.33519930328309     -1.03922409060033
| 40>   H           4.06517228434412      3.33150624148436     -1.75615323984703
| 41>   H           3.60644396962006      4.06799965767698     -0.22922149372549
| 42>   H          -0.42470855417969      2.74175232349964     -2.85598313150995
| 43>   H           2.03767681761809      2.99919560769756     -2.84325782491725
| 44>   H           5.12841611440277      1.43500605416291     -0.63035949295171
| 45>   H           5.71437087614445      2.94072238714509      0.07403697275342
| 46>   H           3.69691566337339      2.44627353489257      1.83834242111019
| 47>   H           2.51989715368903     -1.51374842267782      0.49777386765181
| 48>   H           0.97940923854119     -1.27763792088137      3.15575669047823
| 49>   H          -0.87433960777297     -0.17198795396960     -0.77621497196709
| 50>   H          -3.26436730288320      1.72534761617252     -0.37824811189149
| 51>   H          -1.24779664880420     -2.19016767218413      2.93144193583320
| 52>   H          -1.71989448760604     -4.47827387497603      0.86595283121004
| 53>   H          -5.33787072386714     -3.57892166196191      1.37062683890179
| 54>   H          -4.27437683666217     -4.79488666858884      0.64953612223725
| 55>   H          -3.80154593188633     -3.10763828332452     -1.23068460676807
| 56>   H          -6.12056602992319     -1.91556568759140     -1.68900502593728
| 57>   H          -6.29058824218317     -1.87161262146055      0.05436066639565
| 58>   H           6.12281591677000      2.56722131258430      2.42742452608118
| 59>   H           6.38052531258368      0.95229383593843      1.73746939195889
| 60>   H           5.38855829064485      1.14964631640573      3.20505118621576
| 61>   H           1.13250310182777      0.98658766668147     -3.73535177471829
| 62>   H          -0.40637496609171      0.31138427342944     -3.18143272242348
| 63>   H           1.04939588534537      0.12548862372690     -2.19013103299165
| 64>   H           0.48920836977422      4.33367310026808     -0.91802428536665
| 65>   H          -5.72409842563408     -4.02589995186292     -2.17485209564706
| 66> END
| 67> 
| 68>                          ****END OF INPUT****
================================================================================

                       *****************************
                       * Geometry Optimization Run *
                       *****************************

Geometry optimization settings:
Update method            Update   .... BFGS
Choice of coordinates    CoordSys .... (2022) Redundant Internals
Initial Hessian          InHess   .... Almloef's Model
Max. no of cycles        MaxIter  .... 180

Convergence Tolerances:
Energy Change            TolE     ....  3.0000e-05 Eh
Max. Gradient            TolMAXG  ....  2.0000e-03 Eh/bohr
RMS Gradient             TolRMSG  ....  5.0000e-04 Eh/bohr
Max. Displacement        TolMAXD  ....  1.0000e-02 bohr
RMS Displacement         TolRMSD  ....  7.0000e-03 bohr
Strict Convergence                .... False

------------------------------------------------------------------------------
                        ORCA OPTIMIZATION COORDINATE SETUP
------------------------------------------------------------------------------

The optimization will be done in redundant internal coordinates (2022)
Making redundant internal coordinates   ...  (2022 redundants) done
Evaluating the initial hessian          ...  (Almloef) done
Evaluating the coordinates              ...  done
Calculating the B-matrix                .... done
Calculating the G-matrix                .... done
The number of degrees of freedom        ....  288

    -----------------------------------------------------------------
                    Redundant Internal Coordinates


    -----------------------------------------------------------------
         Definition                    Initial Value    Approx d2E/dq
    -----------------------------------------------------------------
      1. B(C   1,C   0)                  1.5344         0.367649   
      2. B(C   3,C   2)                  1.5276         0.376889   
      3. B(C   4,C   3)                  1.5454         0.353012   
      4. B(C   4,C   0)                  1.5293         0.374484   
      5. B(C   5,C   1)                  1.5339         0.368231   
      6. B(C   6,C   5)                  1.5292         0.374715   
      7. B(O   7,C   6)                  1.4523         0.445062   
      8. B(C   8,O   7)                  1.3369         0.680113   
      9. B(C   9,C   8)                  1.4776         0.452866   
     10. B(C  10,C   9)                  1.3445         0.738418   
     11. B(C  11,C   2)                  1.4794         0.449812   
     12. B(C  12,C  10)                  1.4535         0.494806   
     13. B(C  14,C  13)                  1.4646         0.475068   
     14. B(C  14,C  11)                  1.3464         0.733341   
     15. B(C  15,C  12)                  1.3476         0.730103   
     16. B(C  16,C  15)                  1.4637         0.476538   
     17. B(C  17,C  16)                  1.3408         0.748445   
     18. B(C  18,C  13)                  1.3422         0.744774   
     19. B(C  19,C  17)                  1.4983         0.419736   
     20. B(C  20,C  19)                  1.5462         0.352039   
     21. B(C  21,C  20)                  1.5369         0.364270   
     22. B(C  21,C  18)                  1.5094         0.402870   
     23. B(O  22,C   8)                  1.2196         1.046622   
     24. B(O  23,C   2)                  1.2297         1.008463   
     25. B(C  24,C   6)                  1.5236         0.382433   
     26. B(C  25,C   3)                  1.5300         0.373606   
     27. B(H  26,C  18)                  1.0916         0.358042   
     28. B(O  27,C   4)                  1.4255         0.491236   
     29. B(H  28,C  13)                  1.0872         0.363842   
     30. B(O  29,C  20)                  1.4305         0.482209   
     31. B(H  30,C  17)                  1.0917         0.357828   
     32. B(H  31,C  12)                  1.0900         0.360100   
     33. B(H  32,C   0)                  1.0989         0.348472   
     34. B(H  33,C   0)                  1.0980         0.349684   
     35. B(H  34,C   1)                  1.0982         0.349447   
     36. B(H  35,C   1)                  1.0971         0.350833   
     37. B(H  36,C   3)                  1.1009         0.346019   
     38. B(H  37,C   4)                  1.0971         0.350850   
     39. B(H  38,C   5)                  1.0968         0.351267   
     40. B(H  39,C   5)                  1.0958         0.352539   
     41. B(H  40,C   6)                  1.0964         0.351756   
     42. B(H  41,C   9)                  1.0869         0.364191   
     43. B(H  42,C  10)                  1.0905         0.359407   
     44. B(H  43,C  11)                  1.0890         0.361421   
     45. B(H  44,C  14)                  1.0910         0.358812   
     46. B(H  45,H  43)                  4.2378         0.010000   
     47. B(H  45,C  15)                  1.0916         0.357997   
     48. B(H  46,C  16)                  1.0907         0.359227   
     49. B(H  47,C  19)                  1.0960         0.352287   
     50. B(H  48,C  19)                  1.0967         0.351284   
     51. B(H  49,C  20)                  1.0991         0.348253   
     52. B(H  50,C  21)                  1.0979         0.349813   
     53. B(H  51,C  21)                  1.0989         0.348458   
     54. B(H  52,C  24)                  1.0946         0.354119   
     55. B(H  53,C  24)                  1.0960         0.352215   
     56. B(H  54,C  24)                  1.0913         0.358371   
     57. B(H  55,C  25)                  1.0945         0.354155   
     58. B(H  56,C  25)                  1.0939         0.355017   
     59. B(H  57,H  41)                  3.4748         0.010000   
     60. B(H  57,C  25)                  1.0947         0.353874   
     61. B(H  58,O  23)                  2.0000         0.011393   
     62. B(H  58,O  27)                  0.9748         0.492361   
     63. B(H  59,O  29)                  0.9705         0.500197   
     64. A(H  32,C   0,H  33)          106.5608         0.288019   
     65. A(C   1,C   0,H  32)          110.7823         0.321733   
     66. A(C   1,C   0,C   4)          112.4031         0.362511   
     67. A(C   4,C   0,H  33)          107.9891         0.322889   
     68. A(C   4,C   0,H  32)          109.9578         0.322706   
     69. A(C   1,C   0,H  33)          108.9310         0.321916   
     70. A(C   0,C   1,H  34)          108.7862         0.321881   
     71. A(C   0,C   1,C   5)          114.8685         0.361470   
     72. A(H  34,C   1,H  35)          106.2621         0.288293   
     73. A(C   5,C   1,H  34)          108.3502         0.321964   
     74. A(C   0,C   1,H  35)          109.2693         0.322089   
     75. A(C   5,C   1,H  35)          108.9564         0.322173   
     76. A(C  11,C   2,O  23)          120.5401         0.444295   
     77. A(C   3,C   2,O  23)          119.5635         0.430352   
     78. A(C   3,C   2,C  11)          119.6219         0.375702   
     79. A(C   4,C   3,H  36)          106.1356         0.319235   
     80. A(C   4,C   3,C  25)          112.3665         0.359863   
     81. A(C   2,C   3,C   4)          111.3571         0.360400   
     82. A(C   2,C   3,C  25)          114.4650         0.363906   
     83. A(C  25,C   3,H  36)          108.2024         0.322208   
     84. A(C   2,C   3,H  36)          103.5272         0.322671   
     85. A(C   0,C   4,H  37)          108.1883         0.323066   
     86. A(C   0,C   4,C   3)          113.5596         0.360007   
     87. A(C   3,C   4,H  37)          106.7632         0.319958   
     88. A(C   3,C   4,O  27)          111.2547         0.374804   
     89. A(C   0,C   4,O  27)          111.4112         0.378649   
     90. A(O  27,C   4,H  37)          105.1499         0.335845   
     91. A(C   6,C   5,H  39)          108.5551         0.323353   
     92. A(C   6,C   5,H  38)          107.5615         0.323161   
     93. A(C   1,C   5,H  38)          110.9028         0.322238   
     94. A(H  38,C   5,H  39)          107.0085         0.288746   
     95. A(C   1,C   5,C   6)          113.8565         0.362647   
     96. A(C   1,C   5,H  39)          108.7150         0.322429   
     97. A(O   7,C   6,C  24)          110.2433         0.373599   
     98. A(C   5,C   6,C  24)          111.3309         0.365001   
     99. A(C   5,C   6,O   7)          104.4968         0.372289   
    100. A(O   7,C   6,H  40)          107.6753         0.330532   
    101. A(C   5,C   6,H  40)          111.9799         0.323235   
    102. A(C  24,C   6,H  40)          110.8638         0.324318   
    103. A(C   6,O   7,C   8)          120.0018         0.410541   
    104. A(C   9,C   8,O  22)          125.5674         0.447844   
    105. A(O   7,C   8,O  22)          124.0757         0.479203   
    106. A(O   7,C   8,C   9)          110.1040         0.414486   
    107. A(C  10,C   9,H  41)          121.5936         0.364262   
    108. A(C   8,C   9,H  41)          117.1475         0.335426   
    109. A(C   8,C   9,C  10)          121.1389         0.423354   
    110. A(C   9,C  10,C  12)          123.4068         0.430124   
    111. A(C  12,C  10,H  42)          117.4568         0.339665   
    112. A(C   9,C  10,H  42)          118.9405         0.363439   
    113. A(C  14,C  11,H  43)          120.0903         0.363358   
    114. A(C   2,C  11,C  14)          121.3363         0.422321   
    115. A(C   2,C  11,H  43)          118.2044         0.334624   
    116. A(C  10,C  12,C  15)          121.0882         0.429251   
    117. A(C  15,C  12,H  31)          120.5104         0.362856   
    118. A(C  10,C  12,H  31)          118.0774         0.339774   
    119. A(C  18,C  13,H  28)          120.0946         0.364736   
    120. A(C  14,C  13,H  28)          114.6501         0.338056   
    121. A(C  14,C  13,C  18)          124.0431         0.427652   
    122. A(C  11,C  14,C  13)          121.7828         0.426468   
    123. A(C  13,C  14,H  44)          118.4427         0.337273   
    124. A(C  11,C  14,H  44)          119.5030         0.362908   
    125. A(C  12,C  15,C  16)          124.9457         0.426366   
    126. A(C  16,C  15,H  45)          116.1989         0.337319   
    127. A(C  12,C  15,H  45)          118.3420         0.362493   
    128. A(C  17,C  16,H  46)          121.3741         0.364247   
    129. A(C  15,C  16,H  46)          119.0341         0.337511   
    130. A(C  15,C  16,C  17)          118.9529         0.428266   
    131. A(C  16,C  17,H  30)          116.7982         0.364004   
    132. A(C  16,C  17,C  19)          127.2516         0.418658   
    133. A(C  19,C  17,H  30)          115.9062         0.330261   
    134. A(C  13,C  18,H  26)          117.9700         0.363735   
    135. A(C  13,C  18,C  21)          126.9507         0.415249   
    136. A(C  21,C  18,H  26)          114.9473         0.328064   
    137. A(C  20,C  19,H  48)          105.2392         0.319879   
    138. A(C  17,C  19,H  48)          108.2933         0.329255   
    139. A(C  20,C  19,H  47)          108.6018         0.320028   
    140. A(H  47,C  19,H  48)          107.5664         0.288716   
    141. A(C  17,C  19,H  47)          110.2034         0.329410   
    142. A(C  17,C  19,C  20)          116.5006         0.366922   
    143. A(O  29,C  20,H  49)          109.2238         0.334398   
    144. A(C  19,C  20,C  21)          115.3107         0.358148   
    145. A(C  21,C  20,H  49)          109.9908         0.321214   
    146. A(C  19,C  20,H  49)          109.2889         0.319426   
    147. A(C  21,C  20,O  29)          108.7975         0.375636   
    148. A(C  19,C  20,O  29)          103.9570         0.373429   
    149. A(H  50,C  21,H  51)          105.8023         0.288034   
    150. A(C  20,C  21,H  51)          109.8474         0.321245   
    151. A(C  18,C  21,H  51)          109.6248         0.326600   
    152. A(C  20,C  21,H  50)          107.8145         0.321449   
    153. A(C  18,C  21,C  20)          116.0826         0.366491   
    154. A(C  18,C  21,H  50)          107.1272         0.326809   
    155. A(H  53,C  24,H  54)          109.1440         0.289612   
    156. A(H  52,C  24,H  54)          108.6593         0.289857   
    157. A(C   6,C  24,H  54)          111.8820         0.325313   
    158. A(H  52,C  24,H  53)          108.2431         0.289071   
    159. A(C   6,C  24,H  53)          109.7154         0.324388   
    160. A(C   6,C  24,H  52)          109.1203         0.324675   
    161. A(H  56,C  25,H  57)          108.0347         0.289398   
    162. A(H  55,C  25,H  57)          107.9769         0.289288   
    163. A(C   3,C  25,H  57)          112.1345         0.323396   
    164. A(H  55,C  25,H  56)          107.9085         0.289434   
    165. A(C   3,C  25,H  56)          111.0967         0.323567   
    166. A(C   3,C  25,H  55)          109.5467         0.323438   
    167. A(C   4,O  27,H  58)          106.3457         0.352416   
    168. A(C  20,O  29,H  59)          108.5971         0.352252   
    169. D(H  34,C   1,C   0,H  33)     81.0628         0.010814   
    170. D(H  34,C   1,C   0,C   4)    -38.5766         0.010814   
    171. D(C   5,C   1,C   0,H  33)    -40.5512         0.010814   
    172. D(C   5,C   1,C   0,C   4)   -160.1906         0.010814   
    173. D(C   5,C   1,C   0,H  32)     76.3509         0.010814   
    174. D(H  34,C   1,C   0,H  32)   -162.0351         0.010814   
    175. D(C   4,C   3,C   2,C  11)   -144.4090         0.010610   
    176. D(C  25,C   3,C   2,C  11)    -15.5941         0.010610   
    177. D(C  25,C   3,C   2,O  23)    170.3901         0.010610   
    178. D(H  36,C   3,C   2,C  11)    101.9507         0.010610   
    179. D(C   4,C   3,C   2,O  23)     41.5752         0.010610   
    180. D(O  27,C   4,C   0,H  32)     60.5746         0.011195   
    181. D(C   3,C   4,C   0,H  32)    -65.9938         0.011195   
    182. D(C   3,C   4,C   0,H  33)     49.9026         0.011195   
    183. D(O  27,C   4,C   3,H  36)     45.0693         0.010027   
    184. D(O  27,C   4,C   3,C   2)    -66.9293         0.010027   
    185. D(C   3,C   4,C   0,C   1)    170.0884         0.011195   
    186. D(C   0,C   4,C   3,C   2)     59.7214         0.010027   
    187. D(C   0,C   4,C   3,C  25)    -70.2012         0.010027   
    188. D(C   0,C   4,C   3,H  36)    171.7199         0.010027   
    189. D(O  27,C   4,C   0,C   1)    -63.3431         0.011195   
    190. D(O  27,C   4,C   3,C  25)    163.1481         0.010027   
    191. D(O  27,C   4,C   0,H  33)    176.4710         0.011195   
    192. D(H  38,C   5,C   1,H  35)   -167.7535         0.010846   
    193. D(H  38,C   5,C   1,C   0)     69.3037         0.010846   
    194. D(C   6,C   5,C   1,H  35)     70.7762         0.010846   
    195. D(H  38,C   5,C   1,H  34)    -52.5471         0.010846   
    196. D(C   6,C   5,C   1,C   0)    -52.1665         0.010846   
    197. D(C   6,C   5,C   1,H  34)   -174.0173         0.010846   
    198. D(O   7,C   6,C   5,H  38)    -36.1410         0.011208   
    199. D(O   7,C   6,C   5,C   1)     87.1671         0.011208   
    200. D(C  24,C   6,C   5,H  39)    -32.6115         0.011208   
    201. D(C  24,C   6,C   5,H  38)     82.8477         0.011208   
    202. D(C  24,C   6,C   5,C   1)   -153.8442         0.011208   
    203. D(O   7,C   6,C   5,H  39)   -151.6002         0.011208   
    204. D(C   8,O   7,C   6,H  40)    -47.8591         0.015599   
    205. D(C   8,O   7,C   6,C  24)     73.1999         0.015599   
    206. D(C   8,O   7,C   6,C   5)   -167.0773         0.015599   
    207. D(O  22,C   8,O   7,C   6)     -7.7498         0.034453   
    208. D(C   9,C   8,O   7,C   6)    166.7470         0.034453   
    209. D(H  41,C   9,C   8,O  22)   -170.6181         0.013977   
    210. D(H  41,C   9,C   8,O   7)     14.9860         0.013977   
    211. D(C  10,C   9,C   8,O  22)     13.3029         0.013977   
    212. D(C  10,C   9,C   8,O   7)   -161.0930         0.013977   
    213. D(H  42,C  10,C   9,H  41)   -176.6699         0.038770   
    214. D(H  42,C  10,C   9,C   8)     -0.7663         0.038770   
    215. D(C  12,C  10,C   9,H  41)     -1.8909         0.038770   
    216. D(C  12,C  10,C   9,C   8)    174.0127         0.038770   
    217. D(H  43,C  11,C   2,O  23)   -140.4221         0.013792   
    218. D(C  14,C  11,C   2,C   3)   -127.4079         0.013792   
    219. D(H  43,C  11,C   2,C   3)     45.6217         0.013792   
    220. D(C  14,C  11,C   2,O  23)     46.5483         0.013792   
    221. D(H  31,C  12,C  10,H  42)   -168.4254         0.016673   
    222. D(H  31,C  12,C  10,C   9)     16.7234         0.016673   
    223. D(C  15,C  12,C  10,H  42)     18.0788         0.016673   
    224. D(C  15,C  12,C  10,C   9)   -156.7724         0.016673   
    225. D(C  11,C  14,C  13,H  28)     25.9270         0.015366   
    226. D(C  11,C  14,C  13,C  18)   -141.4537         0.015366   
    227. D(H  44,C  14,C  11,H  43)   -173.5114         0.038190   
    228. D(H  44,C  14,C  11,C   2)     -0.6116         0.038190   
    229. D(C  13,C  14,C  11,H  43)      0.4083         0.038190   
    230. D(H  44,C  14,C  13,C  18)     32.5281         0.015366   
    231. D(C  13,C  14,C  11,C   2)    173.3081         0.038190   
    232. D(H  44,C  14,C  13,H  28)   -160.0912         0.015366   
    233. D(H  45,C  15,C  12,H  31)   -176.0045         0.037822   
    234. D(H  45,C  15,C  12,C  10)     -2.6663         0.037822   
    235. D(C  16,C  15,C  12,H  31)     -4.5562         0.037822   
    236. D(C  16,C  15,C  12,C  10)    168.7820         0.037822   
    237. D(H  46,C  16,C  15,H  45)   -157.8609         0.015461   
    238. D(H  46,C  16,C  15,C  12)     30.5263         0.015461   
    239. D(C  17,C  16,C  15,H  45)     31.1721         0.015461   
    240. D(C  17,C  16,C  15,C  12)   -140.4408         0.015461   
    241. D(H  30,C  17,C  16,H  46)   -178.0910         0.039933   
    242. D(H  30,C  17,C  16,C  15)     -7.3432         0.039933   
    243. D(C  19,C  17,C  16,H  46)      4.4355         0.039933   
    244. D(C  19,C  17,C  16,C  15)    175.1834         0.039933   
    245. D(H  26,C  18,C  13,H  28)   -176.2729         0.039505   
    246. D(H  26,C  18,C  13,C  14)     -9.5405         0.039505   
    247. D(C  21,C  18,C  13,H  28)      8.1349         0.039505   
    248. D(C  21,C  18,C  13,C  14)    174.8672         0.039505   
    249. D(H  48,C  19,C  17,C  16)     25.3978         0.013028   
    250. D(H  47,C  19,C  17,H  30)    -34.6840         0.013028   
    251. D(H  47,C  19,C  17,C  16)    142.8089         0.013028   
    252. D(C  20,C  19,C  17,H  30)     89.5995         0.013028   
    253. D(C  20,C  19,C  17,C  16)    -92.9076         0.013028   
    254. D(O  29,C  20,C  19,H  48)     37.5280         0.010000   
    255. D(O  29,C  20,C  19,H  47)    -77.4168         0.010000   
    256. D(O  29,C  20,C  19,C  17)    157.4847         0.010000   
    257. D(C  21,C  20,C  19,H  48)    156.5287         0.010000   
    258. D(C  21,C  20,C  19,H  47)     41.5839         0.010000   
    259. D(C  21,C  20,C  19,C  17)    -83.5146         0.010000   
    260. D(H  50,C  21,C  20,H  49)     84.5202         0.010629   
    261. D(H  50,C  21,C  20,O  29)    -35.0794         0.010629   
    262. D(H  50,C  21,C  20,C  19)   -151.3628         0.010629   
    263. D(C  18,C  21,C  20,H  49)    -35.5924         0.010629   
    264. D(C  18,C  21,C  20,O  29)   -155.1920         0.010629   
    265. D(C  18,C  21,C  20,C  19)     88.5245         0.010629   
    266. D(H  51,C  21,C  18,C  13)    102.7245         0.012038   
    267. D(H  50,C  21,C  18,H  26)     41.3742         0.012038   
    268. D(H  50,C  21,C  18,C  13)   -142.9191         0.012038   
    269. D(C  20,C  21,C  18,H  26)    161.8570         0.012038   
    270. D(C  20,C  21,C  18,C  13)    -22.4363         0.012038   
    271. D(H  53,C  24,C   6,H  40)   -179.1290         0.011649   
    272. D(H  53,C  24,C   6,O   7)     61.7355         0.011649   
    273. D(H  53,C  24,C   6,C   5)    -53.7601         0.011649   
    274. D(H  52,C  24,C   6,H  40)    -60.6919         0.011649   
    275. D(H  52,C  24,C   6,O   7)   -179.8274         0.011649   
    276. D(H  52,C  24,C   6,C   5)     64.6771         0.011649   
    277. D(H  56,C  25,C   3,H  36)    -53.6828         0.011145   
    278. D(H  56,C  25,C   3,C   4)   -170.5331         0.011145   
    279. D(H  56,C  25,C   3,C   2)     61.1600         0.011145   
    280. D(H  55,C  25,C   3,H  36)     65.4423         0.011145   
    281. D(H  55,C  25,C   3,C   4)    -51.4079         0.011145   
    282. D(H  55,C  25,C   3,C   2)   -179.7148         0.011145   
    283. D(H  58,O  27,C   4,H  37)    168.6358         0.019058   
    284. D(H  58,O  27,C   4,C   3)     53.4265         0.019058   
    285. D(H  58,O  27,C   4,C   0)    -74.3944         0.019058   
    286. D(H  59,O  29,C  20,H  49)    -61.5202         0.018347   
    287. D(H  59,O  29,C  20,C  21)     58.5558         0.018347   
    288. D(H  59,O  29,C  20,C  19)   -178.0808         0.018347   
    -----------------------------------------------------------------

Number of atoms                         .... 60
Number of degrees of freedom            .... 288


         *************************************************************
         *                GEOMETRY OPTIMIZATION CYCLE   1            *
         *************************************************************
---------------------------------
CARTESIAN COORDINATES (ANGSTROEM)
---------------------------------
  C      2.366735    2.397511   -0.813580
  C      3.727201    3.102810   -0.736614
  C     -0.664846    2.026677   -0.916101
  C      0.197070    2.144073   -2.171834
  C      1.468713    2.980877   -1.905421
  C      4.829360    2.303102   -0.030478
  C      4.431652    1.791810    1.354719
  O      3.785670    0.516273    1.099778
  C      3.086508   -0.084342    2.068156
  C      2.272397   -1.179839    1.502092
  C      1.220993   -1.682681    2.172486
  C     -1.402341    0.772057   -0.650031
  C      0.312674   -2.669669    1.612611
  C     -3.491808   -0.464386   -0.275455
  C     -2.724826    0.777322   -0.397467
  C     -0.941657   -2.808221    2.085352
  C     -1.996087   -3.597185    1.446419
  C     -3.248751   -3.119062    1.436288
  C     -4.738069   -0.627108   -0.746427
  C     -4.441901   -3.716107    0.754534
  C     -4.744260   -3.210740   -0.675082
  C     -5.546159   -1.902011   -0.753465
  O      3.053475    0.299024    3.225430
  O     -0.826086    3.010842   -0.196707
  C      5.652645    1.595813    2.244765
  C      0.509975    0.810086   -2.852569
  H     -5.268297    0.256071   -1.107478
  O      1.144497    4.343315   -1.639706
  H     -2.909773   -1.328083    0.036373
  O     -5.520659   -4.262545   -1.255846
  H     -3.435177   -2.214814    2.018902
  H      0.635251   -3.221047    0.729421
  H      1.851723    2.436817    0.156408
  H      2.528478    1.335199   -1.039224
  H      4.065172    3.331506   -1.756153
  H      3.606444    4.068000   -0.229221
  H     -0.424709    2.741752   -2.855983
  H      2.037677    2.999196   -2.843258
  H      5.128416    1.435006   -0.630359
  H      5.714371    2.940722    0.074037
  H      3.696916    2.446274    1.838342
  H      2.519897   -1.513748    0.497774
  H      0.979409   -1.277638    3.155757
  H     -0.874340   -0.171988   -0.776215
  H     -3.264367    1.725348   -0.378248
  H     -1.247797   -2.190168    2.931442
  H     -1.719894   -4.478274    0.865953
  H     -5.337871   -3.578922    1.370627
  H     -4.274377   -4.794887    0.649536
  H     -3.801546   -3.107638   -1.230685
  H     -6.120566   -1.915566   -1.689005
  H     -6.290588   -1.871613    0.054361
  H      6.122816    2.567221    2.427425
  H      6.380525    0.952294    1.737469
  H      5.388558    1.149646    3.205051
  H      1.132503    0.986588   -3.735352
  H     -0.406375    0.311384   -3.181433
  H      1.049396    0.125489   -2.190131
  H      0.489208    4.333673   -0.918024
  H     -5.724098   -4.025900   -2.174852

----------------------------
CARTESIAN COORDINATES (A.U.)
----------------------------
  NO LB      ZA    FRAG     MASS         X           Y           Z
   0 C     6.0000    0    12.011    4.472481    4.530639   -1.537443
   1 C     6.0000    0    12.011    7.043389    5.863460   -1.391999
   2 C     6.0000    0    12.011   -1.256377    3.829865   -1.731179
   3 C     6.0000    0    12.011    0.372408    4.051711   -4.104172
   4 C     6.0000    0    12.011    2.775466    5.633042   -3.600723
   5 C     6.0000    0    12.011    9.126169    4.352233   -0.057595
   6 C     6.0000    0    12.011    8.374609    3.386030    2.560048
   7 O     8.0000    0    15.999    7.153880    0.975614    2.078278
   8 C     6.0000    0    12.011    5.832655   -0.159384    3.908248
   9 C     6.0000    0    12.011    4.294208   -2.229573    2.838542
  10 C     6.0000    0    12.011    2.307343   -3.179806    4.105404
  11 C     6.0000    0    12.011   -2.650041    1.458975   -1.228380
  12 C     6.0000    0    12.011    0.590868   -5.044943    3.047393
  13 C     6.0000    0    12.011   -6.598561   -0.877562   -0.520534
  14 C     6.0000    0    12.011   -5.149175    1.468926   -0.751104
  15 C     6.0000    0    12.011   -1.779474   -5.306768    3.940744
  16 C     6.0000    0    12.011   -3.772058   -6.797694    2.733335
  17 C     6.0000    0    12.011   -6.139249   -5.894173    2.714190
  18 C     6.0000    0    12.011   -8.953654   -1.185062   -1.410542
  19 C     6.0000    0    12.011   -8.393977   -7.022425    1.425862
  20 C     6.0000    0    12.011   -8.965353   -6.067419   -1.275720
  21 C     6.0000    0    12.011  -10.480721   -3.594280   -1.423843
  22 O     8.0000    0    15.999    5.770231    0.565073    6.095179
  23 O     8.0000    0    15.999   -1.561076    5.689667   -0.371722
  24 C     6.0000    0    12.011   10.681952    3.015649    4.241990
  25 C     6.0000    0    12.011    0.963713    1.530841   -5.390574
  26 H     1.0000    0     1.008   -9.955639    0.483904   -2.092831
  27 O     8.0000    0    15.999    2.162787    8.207676   -3.098596
  28 H     1.0000    0     1.008   -5.498674   -2.509712    0.068734
  29 O     8.0000    0    15.999  -10.432533   -8.055042   -2.373206
  30 H     1.0000    0     1.008   -6.491543   -4.185392    3.815172
  31 H     1.0000    0     1.008    1.200451   -6.086898    1.378406
  32 H     1.0000    0     1.008    3.499250    4.604916    0.295569
  33 H     1.0000    0     1.008    4.778131    2.523161   -1.963849
  34 H     1.0000    0     1.008    7.682062    6.295634   -3.318649
  35 H     1.0000    0     1.008    6.815191    7.687405   -0.433166
  36 H     1.0000    0     1.008   -0.802583    5.181161   -5.397026
  37 H     1.0000    0     1.008    3.850651    5.667658   -5.372979
  38 H     1.0000    0     1.008    9.691302    2.711768   -1.191207
  39 H     1.0000    0     1.008   10.798596    5.557160    0.139910
  40 H     1.0000    0     1.008    6.986158    4.622787    3.473964
  41 H     1.0000    0     1.008    4.761916   -2.860570    0.940656
  42 H     1.0000    0     1.008    1.850815   -2.414386    5.963516
  43 H     1.0000    0     1.008   -1.652262   -0.325010   -1.466834
  44 H     1.0000    0     1.008   -6.168760    3.260434   -0.714785
  45 H     1.0000    0     1.008   -2.357994   -4.138817    5.539622
  46 H     1.0000    0     1.008   -3.250130   -8.462711    1.636414
  47 H     1.0000    0     1.008  -10.087114   -6.763182    2.590109
  48 H     1.0000    0     1.008   -8.077402   -9.061023    1.227445
  49 H     1.0000    0     1.008   -7.183881   -5.872585   -2.325657
  50 H     1.0000    0     1.008  -11.566194   -3.619895   -3.191757
  51 H     1.0000    0     1.008  -11.887489   -3.536835    0.102727
  52 H     1.0000    0     1.008   11.570445    4.851345    4.587168
  53 H     1.0000    0     1.008   12.057445    1.799575    3.283341
  54 H     1.0000    0     1.008   10.182899    2.172517    6.056669
  55 H     1.0000    0     1.008    2.140121    1.864380   -7.058792
  56 H     1.0000    0     1.008   -0.767937    0.588431   -6.012037
  57 H     1.0000    0     1.008    1.983071    0.237139   -4.138748
  58 H     1.0000    0     1.008    0.924470    8.189455   -1.734814
  59 H     1.0000    0     1.008  -10.816978   -7.607848   -4.109875

--------------------------------
INTERNAL COORDINATES (ANGSTROEM)
--------------------------------
 C      0   0   0     0.000000000000     0.00000000     0.00000000
 C      1   0   0     1.534352226008     0.00000000     0.00000000
 C      1   2   0     3.055898115643   159.56676519     0.00000000
 C      3   1   2     1.527595519346    57.21497086    92.54635427
 C      1   2   4     1.529338376514   112.40306188   350.47473434
 C      2   1   3     1.533921814865   114.86850910   148.79178026
 C      6   2   1     1.529170418743   113.85652036   307.83352207
 O      7   6   2     1.452337082117   104.49679304    87.16711522
 C      8   7   6     1.336907663191   120.00180909   192.92268362
 C      9   8   7     1.477605367041   110.10403038   166.74702109
 C     10   9   8     1.344518119994   121.13889533   198.90697246
 C      3   1   2     1.479447549471   126.25657630   197.42181102
 C     11  10   9     1.453495807758   123.40681665   174.01266726
 C     12   3   1     2.456617279389   151.43054874   170.50728594
 C     12   3   1     1.346396018434   121.33628238   163.41373767
 C     13  11  10     1.347600558256   121.08824698   203.22762924
 C     16  13  11     1.463735935796   124.94573573   168.78204335
 C     17  16  13     1.340846627136   118.95286340   219.55920922
 C     14  12   3     1.342184850164   142.87069037    46.79422097
 C     18  17  16     1.498285560244   127.25155994   175.18335946
 C     20  18  17     1.546162704938   116.50055080   267.09239846
 C     19  14  12     1.509449071743   126.95069726   146.11904393
 O      9   8   7     1.219567383079   124.07565119   352.25019249
 O      3   1   2     1.229677437469    90.76386346   327.21267302
 C      7   6   2     1.523620783836   111.33090868   206.15579656
 C      4   3   1     1.529977386817   114.46497418   100.70129791
 H     19  14  12     1.091560529020   117.97004458   321.71127432
 O      5   1   2     1.425467200315   111.41118400   296.65688542
 H     14  12   3     1.087186138731    89.32574842   191.40351276
 O     21  20  18     1.430515616032   103.95697078   157.48466463
 H     18  17  16     1.091722706182   116.79821256   352.65682643
 H     13  11  10     1.089999941965   118.07737747    16.72337817
 H      1   2   6     1.098935273532   110.78229038    76.35089767
 H      1   2   6     1.097990230345   108.93102845   319.44876570
 H      2   1   3     1.098174432590   108.78618640   270.40580604
 H      2   1   3     1.097096716292   109.26926886    26.01691334
 H      4   3   1     1.100858158938   103.52718959   218.24609684
 H      5   1   2     1.097084004660   108.18829698    51.76430811
 H      6   2   1     1.096760327111   110.90276338    69.30372981
 H      6   2   1     1.095776475983   108.71502789   186.68991254
 H      7   6   2     1.096381539034   111.97987427   330.90066173
 H     10   9   8     1.086925044956   117.14753812    14.98595182
 H     11  10   9     1.090524132109   118.94046247   359.23365798
 H     12   3   1     1.089003279099   118.20435982   336.44334421
 H     15  12   3     1.090975223604   119.50302298   359.38841563
 H     16  13  11     1.091594586815   118.34201369   357.33370682
 H     17  16  13     1.090660772474   119.03413746    30.52627507
 H     20  18  17     1.095970813581   110.20337238   142.80887172
 H     20  18  17     1.096746857884   108.29325857    25.39780895
 H     21  20  18     1.099106445331   109.28887814    40.96957295
 H     22  19  14     1.097889858045   107.12719934   217.08087587
 H     22  19  14     1.098946035981   109.62479796   102.72450864
 H     25   7   6     1.094558967278   109.12032390    64.67705460
 H     25   7   6     1.096026698448   109.71541947   306.23994971
 H     25   7   6     1.091309772671   111.88200082   184.95195985
 H     26   4   3     1.094531770324   109.54669350   180.28516634
 H     26   4   3     1.093869914779   111.09672994    61.15999185
 H     26   4   3     1.094747842828   112.13448669   300.15160208
 H     28   5   1     0.974844381315   106.34566681   285.60563842
 H     30  21  20     0.970546307141   108.59714918   181.91918216

---------------------------
INTERNAL COORDINATES (A.U.)
---------------------------
 C      0   0   0     0.000000000000     0.00000000     0.00000000
 C      1   0   0     2.899505500127     0.00000000     0.00000000
 C      1   2   0     5.774810531731   159.56676519     0.00000000
 C      3   1   2     2.886737174969    57.21497086    92.54635427
 C      1   2   4     2.890030697707   112.40306188   350.47473434
 C      2   1   3     2.898692140943   114.86850910   148.79178026
 C      6   2   1     2.889713303518   113.85652036   307.83352207
 O      7   6   2     2.744519339340   104.49679304    87.16711522
 C      8   7   6     2.526389349772   120.00180909   192.92268362
 C      9   8   7     2.792269477720   110.10403038   166.74702109
 C     10   9   8     2.540771028883   121.13889533   198.90697246
 C      3   1   2     2.795750698001   126.25657630   197.42181102
 C     11  10   9     2.746709013465   123.40681665   174.01266726
 C     12   3   1     4.642333873904   151.43054874   170.50728594
 C     12   3   1     2.544319742642   121.33628238   163.41373767
 C     13  11  10     2.546595993023   121.08824698   203.22762924
 C     16  13  11     2.766060051033   124.94573573   168.78204335
 C     17  16  13     2.533832912880   118.95286340   219.55920922
 C     14  12   3     2.536361787909   142.87069037    46.79422097
 C     18  17  16     2.831349379270   127.25155994   175.18335946
 C     20  18  17     2.921824070816   116.50055080   267.09239846
 C     19  14  12     2.852445358696   126.95069726   146.11904393
 O      9   8   7     2.304648355882   124.07565119   352.25019249
 O      3   1   2     2.323753589879    90.76386346   327.21267302
 C      7   6   2     2.879226013400   111.33090868   206.15579656
 C      4   3   1     2.891238252177   114.46497418   100.70129791
 H     19  14  12     2.062750458447   117.97004458   321.71127432
 O      5   1   2     2.693742621483   111.41118400   296.65688542
 H     14  12   3     2.054484058797    89.32574842   191.40351276
 O     21  20  18     2.703282744599   103.95697078   157.48466463
 H     18  17  16     2.063056928867   116.79821256   352.65682643
 H     13  11  10     2.059801376304   118.07737747    16.72337817
 H      1   2   6     2.076686705881   110.78229038    76.35089767
 H      1   2   6     2.074900833073   108.93102845   319.44876570
 H      2   1   3     2.075248924869   108.78618640   270.40580604
 H      2   1   3     2.073212336216   109.26926886    26.01691334
 H      4   3   1     2.080320432686   103.52718959   218.24609684
 H      5   1   2     2.073188314712   108.18829698    51.76430811
 H      6   2   1     2.072576652790   110.90276338    69.30372981
 H      6   2   1     2.070717443601   108.71502789   186.68991254
 H      7   6   2     2.071860847061   111.97987427   330.90066173
 H     10   9   8     2.053990663067   117.14753812    14.98595182
 H     11  10   9     2.060791952117   118.94046247   359.23365798
 H     12   3   1     2.057917956440   118.20435982   336.44334421
 H     15  12   3     2.061644391505   119.50302298   359.38841563
 H     16  13  11     2.062814818352   118.34201369   357.33370682
 H     17  16  13     2.061050164988   119.03413746    30.52627507
 H     20  18  17     2.071084688440   110.20337238   142.80887172
 H     20  18  17     2.072551199639   108.29325857    25.39780895
 H     21  20  18     2.077010173704   109.28887814    40.96957295
 H     22  19  14     2.074711156914   107.12719934   217.08087587
 H     22  19  14     2.076707043963   109.62479796   102.72450864
 H     25   7   6     2.068416685584   109.12032390    64.67705460
 H     25   7   6     2.071190295532   109.71541947   306.23994971
 H     25   7   6     2.062276597620   111.88200082   184.95195985
 H     26   4   3     2.068365290789   109.54669350   180.28516634
 H     26   4   3     2.067114565068   111.09672994    61.15999185
 H     26   4   3     2.068773608646   112.13448669   300.15160208
 H     28   5   1     1.842188903878   106.34566681   285.60563842
 H     30  21  20     1.834066720785   108.59714918   181.91918216

---------------------
BASIS SET INFORMATION
---------------------
There are 3 groups of distinct atoms

 Group   1 Type C   : 11s5p1d contracted to 4s3p1d pattern {6311/311/1}
 Group   2 Type O   : 11s5p1d contracted to 4s3p1d pattern {6311/311/1}
 Group   3 Type H   : 4s contracted to 2s pattern {31}

Atom   0C    basis set group =>   1
Atom   1C    basis set group =>   1
Atom   2C    basis set group =>   1
Atom   3C    basis set group =>   1
Atom   4C    basis set group =>   1
Atom   5C    basis set group =>   1
Atom   6C    basis set group =>   1
Atom   7O    basis set group =>   2
Atom   8C    basis set group =>   1
Atom   9C    basis set group =>   1
Atom  10C    basis set group =>   1
Atom  11C    basis set group =>   1
Atom  12C    basis set group =>   1
Atom  13C    basis set group =>   1
Atom  14C    basis set group =>   1
Atom  15C    basis set group =>   1
Atom  16C    basis set group =>   1
Atom  17C    basis set group =>   1
Atom  18C    basis set group =>   1
Atom  19C    basis set group =>   1
Atom  20C    basis set group =>   1
Atom  21C    basis set group =>   1
Atom  22O    basis set group =>   2
Atom  23O    basis set group =>   2
Atom  24C    basis set group =>   1
Atom  25C    basis set group =>   1
Atom  26H    basis set group =>   3
Atom  27O    basis set group =>   2
Atom  28H    basis set group =>   3
Atom  29O    basis set group =>   2
Atom  30H    basis set group =>   3
Atom  31H    basis set group =>   3
Atom  32H    basis set group =>   3
Atom  33H    basis set group =>   3
Atom  34H    basis set group =>   3
Atom  35H    basis set group =>   3
Atom  36H    basis set group =>   3
Atom  37H    basis set group =>   3
Atom  38H    basis set group =>   3
Atom  39H    basis set group =>   3
Atom  40H    basis set group =>   3
Atom  41H    basis set group =>   3
Atom  42H    basis set group =>   3
Atom  43H    basis set group =>   3
Atom  44H    basis set group =>   3
Atom  45H    basis set group =>   3
Atom  46H    basis set group =>   3
Atom  47H    basis set group =>   3
Atom  48H    basis set group =>   3
Atom  49H    basis set group =>   3
Atom  50H    basis set group =>   3
Atom  51H    basis set group =>   3
Atom  52H    basis set group =>   3
Atom  53H    basis set group =>   3
Atom  54H    basis set group =>   3
Atom  55H    basis set group =>   3
Atom  56H    basis set group =>   3
Atom  57H    basis set group =>   3
Atom  58H    basis set group =>   3
Atom  59H    basis set group =>   3
---------------------------------
AUXILIARY/J BASIS SET INFORMATION
---------------------------------
There are 3 groups of distinct atoms

 Group   1 Type C   : 12s5p4d2f1g contracted to 6s4p3d1f1g pattern {711111/2111/211/2/1}
 Group   2 Type O   : 12s5p4d2f1g contracted to 6s4p3d1f1g pattern {711111/2111/211/2/1}
 Group   3 Type H   : 5s2p1d contracted to 3s1p1d pattern {311/2/1}

Atom   0C    basis set group =>   1
Atom   1C    basis set group =>   1
Atom   2C    basis set group =>   1
Atom   3C    basis set group =>   1
Atom   4C    basis set group =>   1
Atom   5C    basis set group =>   1
Atom   6C    basis set group =>   1
Atom   7O    basis set group =>   2
Atom   8C    basis set group =>   1
Atom   9C    basis set group =>   1
Atom  10C    basis set group =>   1
Atom  11C    basis set group =>   1
Atom  12C    basis set group =>   1
Atom  13C    basis set group =>   1
Atom  14C    basis set group =>   1
Atom  15C    basis set group =>   1
Atom  16C    basis set group =>   1
Atom  17C    basis set group =>   1
Atom  18C    basis set group =>   1
Atom  19C    basis set group =>   1
Atom  20C    basis set group =>   1
Atom  21C    basis set group =>   1
Atom  22O    basis set group =>   2
Atom  23O    basis set group =>   2
Atom  24C    basis set group =>   1
Atom  25C    basis set group =>   1
Atom  26H    basis set group =>   3
Atom  27O    basis set group =>   2
Atom  28H    basis set group =>   3
Atom  29O    basis set group =>   2
Atom  30H    basis set group =>   3
Atom  31H    basis set group =>   3
Atom  32H    basis set group =>   3
Atom  33H    basis set group =>   3
Atom  34H    basis set group =>   3
Atom  35H    basis set group =>   3
Atom  36H    basis set group =>   3
Atom  37H    basis set group =>   3
Atom  38H    basis set group =>   3
Atom  39H    basis set group =>   3
Atom  40H    basis set group =>   3
Atom  41H    basis set group =>   3
Atom  42H    basis set group =>   3
Atom  43H    basis set group =>   3
Atom  44H    basis set group =>   3
Atom  45H    basis set group =>   3
Atom  46H    basis set group =>   3
Atom  47H    basis set group =>   3
Atom  48H    basis set group =>   3
Atom  49H    basis set group =>   3
Atom  50H    basis set group =>   3
Atom  51H    basis set group =>   3
Atom  52H    basis set group =>   3
Atom  53H    basis set group =>   3
Atom  54H    basis set group =>   3
Atom  55H    basis set group =>   3
Atom  56H    basis set group =>   3
Atom  57H    basis set group =>   3
Atom  58H    basis set group =>   3
Atom  59H    basis set group =>   3


           ************************************************************
           *        Program running with 8 parallel MPI-processes     *
           *              working on a common directory               *
           ************************************************************
------------------------------------------------------------------------------
                             ORCA STARTUP CALCULATIONS
                           -- RI-GTO INTEGRALS CHOSEN --
------------------------------------------------------------------------------
------------------------------------------------------------------------------
                   ___                                                        
                  /   \      - P O W E R E D   B Y -                         
                 /     \                                                     
                 |  |  |   _    _      __       _____    __    __             
                 |  |  |  | |  | |    /  \     |  _  \  |  |  /  |          
                  \  \/   | |  | |   /    \    | | | |  |  | /  /          
                 / \  \   | |__| |  /  /\  \   | |_| |  |  |/  /          
                |  |  |   |  __  | /  /__\  \  |    /   |      \           
                |  |  |   | |  | | |   __   |  |    \   |  |\   \          
                \     /   | |  | | |  |  |  |  | |\  \  |  | \   \       
                 \___/    |_|  |_| |__|  |__|  |_| \__\ |__|  \__/        
                                                                              
                      - O R C A' S   B I G   F R I E N D -                    
                                      &                                       
                       - I N T E G R A L  F E E D E R -                       
                                                                              
 v1 FN, 2020, v2 2021, v3 2022-2024                                           
------------------------------------------------------------------------------


----------------------
SHARK INTEGRAL PACKAGE
----------------------

Number of atoms                             ...     60
Number of basis functions                   ...    568
Number of shells                            ...    288
Maximum angular momentum                    ...      2
Integral batch strategy                     ... SHARK/LIBINT Hybrid
RI-J (if used) integral strategy            ... SPLIT-RIJ (Revised 2003 algorithm where possible)
Printlevel                                  ...      1
Contraction scheme used                     ... SEGMENTED contraction
Prescreening option                         ... SCHWARTZ
   Thresh                                   ... 2.500e-11
   Tcut                                     ... 2.500e-12
   Tpresel                                  ... 2.500e-12 
Coulomb Range Separation                    ... NOT USED
Exchange Range Separation                   ... NOT USED
Multipole approximations                    ... NOT USED
Finite Nucleus Model                        ... NOT USED
CABS basis                                  ... NOT available
Auxiliary Coulomb fitting basis             ... AVAILABLE
   # of basis functions in Aux-J            ...   1724
   # of shells in Aux-J                     ...    580
   Maximum angular momentum in Aux-J        ...      4
Auxiliary J/K fitting basis                 ... NOT available
Auxiliary Correlation fitting basis         ... NOT available
Auxiliary 'external' fitting basis          ... NOT available

Checking pre-screening integrals            ... done (  0.0 sec) Dimension = 288
   => SHARK Basis and OBASIS are compatible. Storing Pre-screening
Shell pair information
Shell pair cut-off parameter TPreSel        ...   2.5e-12
Total number of shell pairs                 ...     41616
Shell pairs after pre-screening             ...     30622
Total number of primitive shell pairs       ...    183394
Primitive shell pairs kept                  ...     79242
          la=0 lb=0:  10814 shell pairs
          la=1 lb=0:  11878 shell pairs
          la=1 lb=1:   3147 shell pairs
          la=2 lb=0:   2880 shell pairs
          la=2 lb=1:   1731 shell pairs
          la=2 lb=2:    172 shell pairs

Checking whether 4 symmetric matrices of dimension 568 fit in memory
:Max Core in MB      =   4096.00
 MB in use           =     41.70
 MB left             =   4054.30
 MB needed           =      4.93
 Data fit in memory  = YES
Calculating RI/J V-Matrix + Cholesky decomp.... done (  0.1 sec)
Calculating Nuclear repulsion               ... done (  0.0 sec) ENN=   2622.506534198808 Eh

Diagonalization of the overlap matrix:
Smallest eigenvalue                        ... 1.617e-06
Time for diagonalization                   ...    0.041 sec
Threshold for overlap eigenvalues          ... 1.000e-07
Number of eigenvalues below threshold      ... 0
Time for construction of square roots      ...    0.021 sec
Total time needed                          ...    0.065 sec

-------------------
DFT GRID GENERATION
-------------------

General Integration Accuracy     IntAcc      ... 4.388
Radial Grid Type                 RadialGrid  ... OptM3 with GC (2021)
Angular Grid (max. ang.)         AngularGrid ... 4 (Lebedev-302)
Angular grid pruning method      GridPruning ... 4 (adaptive)
Weight generation scheme         WeightScheme... mBecke (2022)
Basis function cutoff            BFCut       ... 1.0000e-11
Integration weight cutoff        WCut        ... 1.0000e-14
Partially contracted basis set               ... off
Rotationally invariant grid construction     ... off
Angular grids for H and He will be reduced by one unit
Diffuse basis detected: some atoms will have their outermost
                        angular grid increased by 1.

Total number of grid points                  ...   274815
Total number of batches                      ...     4322
Average number of points per batch           ...       63
Average number of grid points per atom       ...     4580

--------------------
COSX GRID GENERATION
--------------------

GRIDX 1
-------
General Integration Accuracy     IntAcc      ... 3.816
Radial Grid Type                 RadialGrid  ... OptM3 with GC (2021)
Angular Grid (max. ang.)         AngularGrid ... 1 (Lebedev-50)
Angular grid pruning method      GridPruning ... 4 (adaptive)
Weight generation scheme         WeightScheme... mBecke (2022)
Basis function cutoff            BFCut       ... 1.0000e-11
Integration weight cutoff        WCut        ... 1.0000e-14
Partially contracted basis set               ... on
Rotationally invariant grid construction     ... off
Angular grids for H and He will be reduced by one unit
Diffuse basis detected: some atoms will have their outermost
                        angular grid increased by 1.

Total number of grid points                  ...    34917
Total number of batches                      ...      306
Average number of points per batch           ...      114
Average number of grid points per atom       ...      582
UseSFitting                                  ... on

GRIDX 2
-------
General Integration Accuracy     IntAcc      ... 4.020
Radial Grid Type                 RadialGrid  ... OptM3 with GC (2021)
Angular Grid (max. ang.)         AngularGrid ... 2 (Lebedev-110)
Angular grid pruning method      GridPruning ... 4 (adaptive)
Weight generation scheme         WeightScheme... mBecke (2022)
Basis function cutoff            BFCut       ... 1.0000e-11
Integration weight cutoff        WCut        ... 1.0000e-14
Partially contracted basis set               ... on
Rotationally invariant grid construction     ... off
Angular grids for H and He will be reduced by one unit
Diffuse basis detected: some atoms will have their outermost
                        angular grid increased by 1.

Total number of grid points                  ...    78658
Total number of batches                      ...      649
Average number of points per batch           ...      121
Average number of grid points per atom       ...     1311
UseSFitting                                  ... on

GRIDX 3
-------
General Integration Accuracy     IntAcc      ... 4.338
Radial Grid Type                 RadialGrid  ... OptM3 with GC (2021)
Angular Grid (max. ang.)         AngularGrid ... 3 (Lebedev-194)
Angular grid pruning method      GridPruning ... 4 (adaptive)
Weight generation scheme         WeightScheme... mBecke (2022)
Basis function cutoff            BFCut       ... 1.0000e-11
Integration weight cutoff        WCut        ... 1.0000e-14
Partially contracted basis set               ... on
Rotationally invariant grid construction     ... off
Angular grids for H and He will be reduced by one unit
Diffuse basis detected: some atoms will have their outermost
                        angular grid increased by 1.

Total number of grid points                  ...   169124
Total number of batches                      ...     1352
Average number of points per batch           ...      125
Average number of grid points per atom       ...     2819
UseSFitting                                  ... on
Grids setup in   3.6 sec
Initializing property integral containers    ... done (  0.0 sec)

SHARK setup successfully completed in   4.1 seconds

Maximum memory used throughout the entire STARTUP-calculation: 93.5 MB


           ************************************************************
           *        Program running with 8 parallel MPI-processes     *
           *              working on a common directory               *
           ************************************************************
-------------------------------------------------------------------------------
                                 ORCA GUESS
                   Start orbitals & Density for SCF / CASSCF
-------------------------------------------------------------------------------

------------
SCF SETTINGS
------------
Hamiltonian:
 Density Functional     Method          .... DFT(GTOs)
 Exchange Functional    Exchange        .... M062X
 Correlation Functional Correlation     .... M062X
 Gradients option       PostSCFGGA      .... off
 Hybrid DFT is turned on
   Fraction HF Exchange ScalHFX         ....  0.540000
   Scaling of DF-GGA-X  ScalDFX         ....  0.460000
   Scaling of DF-GGA-C  ScalDFC         ....  1.000000
   Scaling of DF-LDA-C  ScalLDAC        ....  1.000000
   Perturbative correction              ....  0.000000
 RI-approximation to the Coulomb term is turned on
   Number of AuxJ basis functions       .... 1724
   RIJ-COSX (HFX calculated with COS-X)).... on


General Settings:
 Integral files         IntName         .... tests/NonBR
 Hartree-Fock type      HFTyp           .... RHF
 Total Charge           Charge          ....    0
 Multiplicity           Mult            ....    1
 Number of Electrons    NEL             ....  210
 Basis Dimension        Dim             ....  568
 Nuclear Repulsion      ENuc            ....   2622.5065341988 Eh

Convergence Acceleration:
 AO-DIIS                CNVDIIS         .... on
   Start iteration      DIISMaxIt       ....    12
   Startup error        DIISStart       ....  0.200000
   # of expansion vecs  DIISMaxEq       ....     5
   Bias factor          DIISBfac        ....   1.050
   Max. coefficient     DIISMaxC        ....  10.000
 MO-DIIS                CNVKDIIS        .... off
 Trust-Rad. Augm. Hess. CNVTRAH         .... auto
   Auto Start mean grad. ratio tolernc. ....  1.125000
   Auto Start start iteration           ....    50
   Auto Start num. interpolation iter.  ....    10
   Max. Number of Micro iterations      ....    24
   Max. Number of Macro iterations      .... Maxiter - #DIIS iter
   Number of Davidson start vectors     ....     2
   Converg. threshold    (grad. norm)   ....   1.000e-05
   Grad. Scal. Fac. for Micro threshold ....   0.100
   Minimum threshold for Micro iter.    ....   1.000e-02
   NR start threshold (gradient norm)   ....   1.000e-04
   Initial trust radius                 ....   0.400
   Minimum AH scaling param. (alpha)    ....   1.000
   Maximum AH scaling param. (alpha)    .... 1000.000
   Quad. conv. algorithm                .... NR
   White noise on init. David. guess    .... on
   Maximum white noise                  ....   0.010
   Pseudo random numbers                .... off
   Inactive MOs                         .... canonical
   Orbital update algorithm             .... Taylor
   Preconditioner                       .... Diag
   Full preconditioner red. dimension   ....   250
 SOSCF                 CNVSOSCF           .... on
   Start iteration     SOSCFMaxIt         ....   150
   Startup grad/error  SOSCFStart         ....  0.003300
   Hessian update      SOSCFHessUp        .... L-BFGS
   Autom. constraints  SOSCFAutoConstrain .... off
 Level Shifting         CNVShift        .... on
   Level shift para.    LevelShift      ....    0.2500
   Turn off err/grad.   ShiftErr        ....    0.0010
 Zerner damping         CNVZerner       .... off
 Static damping         CNVDamp         .... on
   Fraction old density DampFac         ....    0.7000
   Max. Damping (<1)    DampMax         ....    0.9800
   Min. Damping (>=0)   DampMin         ....    0.0000
   Turn off err/grad.   DampErr         ....    0.1000

SCF Procedure:
 Maximum # iterations   MaxIter         ....   125
 SCF integral mode      SCFMode         .... Direct
   Integral package                     .... SHARK and LIBINT hybrid scheme
 Reset frequency        DirectResetFreq ....    20
 Integral Threshold     Thresh          ....  2.500e-11 Eh
 Primitive CutOff       TCut            ....  2.500e-12 Eh

Convergence Tolerance:
 Convergence Check Mode ConvCheckMode   .... Total+1el-Energy
 Convergence forced     ConvForced      .... 0
 Energy Change          TolE            ....  1.000e-08 Eh
 1-El. energy change                    ....  1.000e-05 Eh
 Orbital Gradient       TolG            ....  1.000e-05
 Orbital Rotation angle TolX            ....  1.000e-05
 DIIS Error             TolErr          ....  5.000e-07

------------------------------
INITIAL GUESS: MODEL POTENTIAL
------------------------------
Loading Hartree-Fock densities                     ... done
Calculating cut-offs                               ... done
Initializing the effective Hamiltonian             ... done
Setting up the integral package (SHARK)            ... done
Starting the Coulomb interaction                   ... done (   0.5 sec)
Making the grid                                    ... done (   0.5 sec)
Mapping shells                                     ... done
Starting the XC term evaluation                    ... done (   0.2 sec)
  promolecular density results
     # of electrons  =    209.978009632
     EX              =   -167.804728143
     EC              =     -6.995376943
     EX+EC           =   -174.800105085
Transforming the Hamiltonian                       ... done (   0.0 sec)
Diagonalizing the Hamiltonian                      ... done (   0.0 sec)
Back transforming the eigenvectors                 ... done (   0.0 sec)
Now organizing SCF variables                       ... done
                      ------------------
                      INITIAL GUESS DONE (   1.3 sec)
                      ------------------
             **** ENERGY FILE WAS UPDATED (tests/NonBR.en.tmp) ****
Finished Guess after   1.5 sec
Maximum memory used throughout the entire GUESS-calculation: 51.5 MB


           ************************************************************
           *        Program running with 8 parallel MPI-processes     *
           *              working on a common directory               *
           ************************************************************

-------------------------------------------------------------------------------------------
                                      ORCA LEAN-SCF
                              memory conserving SCF solver
-------------------------------------------------------------------------------------------

--------------------
CPCM SOLVATION MODEL
--------------------
CPCM parameters:
  Epsilon                                         ...      80.1510
  Refrac                                          ...       1.3328
  Rsolv                                           ...       1.3000
  Surface type                                    ... GAUSSIAN VDW
  Discretization scheme                           ... Constant charge density
    Threshold for H atoms                         ...       5.0000 (charges/Ang^2)
    Threshold for non-H atoms                     ...       5.0000 (charges/Ang^2)
  Epsilon function type                           ...         CPCM
Solvent:                                          ... WATER
Radii:
  Scheme                                          ... Element-dependent radii
  Radius for C  used is    3.8550 Bohr (=   2.0400 Ang.)
  Radius for O  used is    3.4469 Bohr (=   1.8240 Ang.)
  Radius for H  used is    2.4944 Bohr (=   1.3200 Ang.)
Calculating surface                               ...        done! (  0.0s)
Cavity surface points                             ...         4871
Cavity Volume                                     ...    3330.5283
Cavity Surface-area                               ...    1700.4114
Calculating surface distance matrix               ...        done! (  0.1s)
Performing Cholesky decomposition & store         ...        done! (  0.7s)
Overall time for CPCM initialization              ...                 0.9s

----------------------------------------D-I-I-S--------------------------------------------
Iteration    Energy (Eh)           Delta-E    RMSDP     MaxDP     DIISErr   Damp  Time(sec)
-------------------------------------------------------------------------------------------
               ***  Starting incremental Fock matrix formation  ***
[...]
 C     12   3   1     1.350045996829   121.74641020   128.71812555
 C     13  11  10     1.352094423510   120.39705423   187.10510835
 C     16  13  11     1.451689431457   125.81938880   172.53423661
 C     17  16  13     1.343357930417   120.23922819   192.28028899
 C     14  12   3     1.344854452192   150.18917112     4.79950330
 C     18  17  16     1.496708064484   126.09971041   169.58944355
 C     20  18  17     1.538212788790   112.41020269   259.73860857
 C     19  14  12     1.506848330699   126.71249870   180.78130312
 O      9   8   7     1.221082004994   123.64698326   351.96736200
 O      3   1   2     1.231039259504    79.20794751   320.98814207
 C      7   6   2     1.519294888195   113.35021643   193.36975748
 C      4   3   1     1.539268683585   112.30491826    95.90773334
 H     19  14  12     1.091163343109   117.91530344     1.50510806
 O      5   1   2     1.424541263197   112.26181879   304.30896330
 H     14  12   3     1.088558601550    88.74290370   186.18397254
 O     21  20  18     1.426701738206   105.18571756   190.74886529
 H     18  17  16     1.091416698977   117.63219882   355.06118570
 H     13  11  10     1.089795778229   118.66622755     3.26797949
 H      1   2   3     1.096953985970   110.33915971   291.47858277
 H      1   2   3     1.097111779259   109.34929416   174.16436366
 H      2   1   3     1.098677606300   108.74277199   265.91948126
 H      2   1   3     1.097084057481   109.54071666    21.68004589
 H      4   3   1     1.101672187451   104.62317169   212.92118355
 H      5   1   2     1.097518036253   108.00450489    59.23420805
 H      6   2   1     1.098903998335   110.11837611    64.09101708
 H      6   2   1     1.096958856259   108.78848524   180.84007026
 H      7   6   2     1.093966041146   110.41203449   317.69883307
 H     10   9   8     1.086561491268   117.63042459     2.44943193
 H     11  10   9     1.090933453296   118.01195830   357.85127206
 H     12   3   1     1.086849091813   118.42793734   307.41119984
 H     15  12   3     1.090759395375   119.26780051     0.20507088
 H     16  13  11     1.092160043521   118.12781057   357.58959152
 H     17  16  13     1.090360833254   118.57802483     6.41157276
 H     20  18  17     1.098021271214   109.82199843   140.79868729
 H     20  18  17     1.095584950183   110.91910714    21.23798758
 H     21  20  18     1.096742458854   108.72510197    74.33702579
 H     22  19  14     1.100267911099   107.86997474   260.85840641
 H     22  19  14     1.098850117668   109.08044033   146.95867913
 H     25   7   6     1.094148978414   110.02244381    64.17064569
 H     25   7   6     1.095407367596   110.25270150   304.35508933
 H     25   7   6     1.094348846158   110.45472528   184.06871654
 H     26   4   3     1.094998665508   109.52295651   195.50245007
 H     26   4   3     1.092367194726   111.92464290    76.39064835
 H     26   4   3     1.096164196880   111.57850919   314.89347628
 H     28   5   1     0.973691421918   106.18175249   294.94510447
 H     30  21  20     0.970636493016   108.70217651   191.33331204

---------------------------
INTERNAL COORDINATES (A.U.)
---------------------------
 C      0   0   0     0.000000000000     0.00000000     0.00000000
 C      1   0   0     2.896531469270     0.00000000     0.00000000
 C      1   2   0     5.997305584063   151.82195803     0.00000000
 C      3   1   2     2.882428832847    52.91402933   105.05841246
 C      1   2   3     2.889222877546   112.98269323    53.45867085
 C      2   1   3     2.896720677691   114.62127150   144.98381377
 C      6   2   1     2.881128818146   115.20964765   301.53810775
 O      7   6   2     2.742181273356   107.01807634    74.90394526
 C      8   7   6     2.528724150114   119.39965772   229.95921308
 C      9   8   7     2.786371714634   111.14625468   169.97932259
 C     10   9   8     2.547386945408   119.93576370   185.70575928
 C      3   1   2     2.791666993720   144.80388676   190.81660132
 C     11  10   9     2.733234962372   125.43020908   175.55029145
 C     12   3   1     4.653801357806   151.35203397   127.46715472
 C     12   3   1     2.551217202203   121.74641020   128.71812555
 C     13  11  10     2.555088167636   120.39705423   187.10510835
 C     16  13  11     2.743295456962   125.81938880   172.53423661
 C     17  16  13     2.538578588319   120.23922819   192.28028899
 C     14  12   3     2.541406604628   150.18917112     4.79950330
 C     18  17  16     2.828368344307   126.09971041   169.58944355
 C     20  18  17     2.906800906509   112.41020269   259.73860857
 C     19  14  12     2.847530670378   126.71249870   180.78130312
 O      9   8   7     2.307510576498   123.64698326   351.96736200
 O      3   1   2     2.326327060568    79.20794751   320.98814207
 C      7   6   2     2.871051255355   113.35021643   193.36975748
 C      4   3   1     2.908796258498   112.30491826    95.90773334
 H     19  14  12     2.061999885850   117.91530344     1.50510806
 O      5   1   2     2.691992853913   112.26181879   304.30896330
 H     14  12   3     2.057077637653    88.74290370   186.18397254
 O     21  20  18     2.696075560000   105.18571756   190.74886529
 H     18  17  16     2.062478659054   117.63219882   355.06118570
 H     13  11  10     2.059415562757   118.66622755     3.26797949
 H      1   2   3     2.072942614997   110.33915971   291.47858277
 H      1   2   3     2.073240801099   109.34929416   174.16436366
 H      2   1   3     2.076199785380   108.74277199   265.91948126
 H      2   1   3     2.073188414530   109.54071666    21.68004589
 H      4   3   1     2.081858723640   104.62317169   212.92118355
 H      5   1   2     2.074008515558   108.00450489    59.23420805
 H      6   2   1     2.076627604324   110.11837611    64.09101708
 H      6   2   1     2.072951818510   108.78848524   180.84007026
 H      7   6   2     2.067296217575   110.41203449   317.69883307
 H     10   9   8     2.053303646162   117.63042459     2.44943193
 H     11  10   9     2.061565457062   118.01195830   357.85127206
 H     12   3   1     2.053847132428   118.42793734   307.41119984
 H     15  12   3     2.061236535261   119.26780051     0.20507088
 H     16  13  11     2.063883376666   118.12781057   357.58959152
 H     17  16  13     2.060483362004   118.57802483     6.41157276
 H     20  18  17     2.074959491814   109.82199843   140.79868729
 H     20  18  17     2.070355512291   110.91910714    21.23798758
 H     21  20  18     2.072542886677   108.72510197    74.33702579
 H     22  19  14     2.079205025919   107.86997474   260.85840641
 H     22  19  14     2.076525784620   109.08044033   146.95867913
 H     25   7   6     2.067641918911   110.02244381    64.17064569
 H     25   7   6     2.070019929835   110.25270150   304.35508933
 H     25   7   6     2.068019614212   110.45472528   184.06871654
 H     26   4   3     2.069247594820   109.52295651   195.50245007
 H     26   4   3     2.064274835712   111.92464290    76.39064835
 H     26   4   3     2.071450129913   111.57850919   314.89347628
 H     28   5   1     1.840010126374   106.18175249   294.94510447
 H     30  21  20     1.834237147390   108.70217651   191.33331204



           ************************************************************
           *        Program running with 8 parallel MPI-processes     *
           *              working on a common directory               *
           ************************************************************
------------------------------------------------------------------------------
                   ___                                                        
                  /   \      - P O W E R E D   B Y -                         
                 /     \                                                     
                 |  |  |   _    _      __       _____    __    __             
                 |  |  |  | |  | |    /  \     |  _  \  |  |  /  |          
                  \  \/   | |  | |   /    \    | | | |  |  | /  /          
                 / \  \   | |__| |  /  /\  \   | |_| |  |  |/  /          
                |  |  |   |  __  | /  /__\  \  |    /   |      \           
                |  |  |   | |  | | |   __   |  |    \   |  |\   \          
                \     /   | |  | | |  |  |  |  | |\  \  |  | \   \       
                 \___/    |_|  |_| |__|  |__|  |_| \__\ |__|  \__/        
                                                                              
                      - O R C A' S   B I G   F R I E N D -                    
                                      &                                       
                       - I N T E G R A L  F E E D E R -                       
                                                                              
 v1 FN, 2020, v2 2021, v3 2022-2024                                           
------------------------------------------------------------------------------


----------------------
SHARK INTEGRAL PACKAGE
----------------------

Number of atoms                             ...     60
Number of basis functions                   ...    568
Number of shells                            ...    288
Maximum angular momentum                    ...      2
Integral batch strategy                     ... SHARK/LIBINT Hybrid
RI-J (if used) integral strategy            ... SPLIT-RIJ (Revised 2003 algorithm where possible)
Printlevel                                  ...      1
Contraction scheme used                     ... SEGMENTED contraction
Prescreening option                         ... SCHWARTZ
   Thresh                                   ... 2.500e-11
   Tcut                                     ... 2.500e-12
   Tpresel                                  ... 2.500e-12 
Coulomb Range Separation                    ... NOT USED
Exchange Range Separation                   ... NOT USED
Multipole approximations                    ... NOT USED
Finite Nucleus Model                        ... NOT USED
CABS basis                                  ... NOT available
Auxiliary Coulomb fitting basis             ... AVAILABLE
   # of basis functions in Aux-J            ...   1724
   # of shells in Aux-J                     ...    580
   Maximum angular momentum in Aux-J        ...      4
Auxiliary J/K fitting basis                 ... NOT available
Auxiliary Correlation fitting basis         ... NOT available
Auxiliary 'external' fitting basis          ... NOT available

Checking pre-screening integrals            ... done (  0.0 sec) Dimension = 288
   => SHARK Basis and OBASIS are compatible. Storing Pre-screening
Shell pair information
Shell pair cut-off parameter TPreSel        ...   2.5e-12
Total number of shell pairs                 ...     41616
Shell pairs after pre-screening             ...     30956
Total number of primitive shell pairs       ...    183394
Primitive shell pairs kept                  ...     80327
          la=0 lb=0:  10911 shell pairs
          la=1 lb=0:  11956 shell pairs
          la=1 lb=1:   3162 shell pairs
          la=2 lb=0:   2955 shell pairs
          la=2 lb=1:   1779 shell pairs
          la=2 lb=2:    193 shell pairs

Checking whether 4 symmetric matrices of dimension 568 fit in memory
:Max Core in MB      =   4096.00
 MB in use           =     44.62
 MB left             =   4051.38
 MB needed           =      4.93
 Data fit in memory  = YES
Calculating RI/J V-Matrix + Cholesky decomp.... done (  0.1 sec)
Calculating Nuclear repulsion               ... done (  0.0 sec) ENN=   2669.302806703902 Eh

Diagonalization of the overlap matrix:
Smallest eigenvalue                        ... 1.397e-06
Time for diagonalization                   ...    0.040 sec
Threshold for overlap eigenvalues          ... 1.000e-07
Number of eigenvalues below threshold      ... 0
Time for construction of square roots      ...    0.021 sec
Total time needed                          ...    0.064 sec

-------------------
DFT GRID GENERATION
-------------------

General Integration Accuracy     IntAcc      ... 4.388
Radial Grid Type                 RadialGrid  ... OptM3 with GC (2021)
Angular Grid (max. ang.)         AngularGrid ... 4 (Lebedev-302)
Angular grid pruning method      GridPruning ... 4 (adaptive)
Weight generation scheme         WeightScheme... mBecke (2022)
Basis function cutoff            BFCut       ... 1.0000e-11
Integration weight cutoff        WCut        ... 1.0000e-14
Partially contracted basis set               ... off
Rotationally invariant grid construction     ... off
Angular grids for H and He will be reduced by one unit
Diffuse basis detected: some atoms will have their outermost
                        angular grid increased by 1.

Total number of grid points                  ...   274395
Total number of batches                      ...     4317
Average number of points per batch           ...       63
Average number of grid points per atom       ...     4573

--------------------
COSX GRID GENERATION
--------------------

GRIDX 1
-------
General Integration Accuracy     IntAcc      ... 3.816
Radial Grid Type                 RadialGrid  ... OptM3 with GC (2021)
Angular Grid (max. ang.)         AngularGrid ... 1 (Lebedev-50)
Angular grid pruning method      GridPruning ... 4 (adaptive)
Weight generation scheme         WeightScheme... mBecke (2022)
Basis function cutoff            BFCut       ... 1.0000e-11
Integration weight cutoff        WCut        ... 1.0000e-14
Partially contracted basis set               ... on
Rotationally invariant grid construction     ... off
Angular grids for H and He will be reduced by one unit
Diffuse basis detected: some atoms will have their outermost
                        angular grid increased by 1.

Total number of grid points                  ...    34836
Total number of batches                      ...      307
Average number of points per batch           ...      113
Average number of grid points per atom       ...      581
UseSFitting                                  ... on

GRIDX 2
-------
General Integration Accuracy     IntAcc      ... 4.020
Radial Grid Type                 RadialGrid  ... OptM3 with GC (2021)
Angular Grid (max. ang.)         AngularGrid ... 2 (Lebedev-110)
Angular grid pruning method      GridPruning ... 4 (adaptive)
Weight generation scheme         WeightScheme... mBecke (2022)
Basis function cutoff            BFCut       ... 1.0000e-11
Integration weight cutoff        WCut        ... 1.0000e-14
Partially contracted basis set               ... on
Rotationally invariant grid construction     ... off
Angular grids for H and He will be reduced by one unit
Diffuse basis detected: some atoms will have their outermost
                        angular grid increased by 1.

Total number of grid points                  ...    78391
Total number of batches                      ...      642
Average number of points per batch           ...      122
Average number of grid points per atom       ...     1307
UseSFitting                                  ... on

GRIDX 3
-------
General Integration Accuracy     IntAcc      ... 4.338
Radial Grid Type                 RadialGrid  ... OptM3 with GC (2021)
Angular Grid (max. ang.)         AngularGrid ... 3 (Lebedev-194)
Angular grid pruning method      GridPruning ... 4 (adaptive)
Weight generation scheme         WeightScheme... mBecke (2022)
Basis function cutoff            BFCut       ... 1.0000e-11
Integration weight cutoff        WCut        ... 1.0000e-14
Partially contracted basis set               ... on
Rotationally invariant grid construction     ... off
Angular grids for H and He will be reduced by one unit
Diffuse basis detected: some atoms will have their outermost
                        angular grid increased by 1.

Total number of grid points                  ...   168488
Total number of batches                      ...     1353
Average number of points per batch           ...      124
Average number of grid points per atom       ...     2808
UseSFitting                                  ... on
Grids setup in   3.5 sec
Initializing property integral containers    ... done (  0.0 sec)

SHARK setup successfully completed in   4.0 seconds

Maximum memory used throughout the entire STARTUP-calculation: 96.3 MB


           ************************************************************
           *        Program running with 8 parallel MPI-processes     *
           *              working on a common directory               *
           ************************************************************
Occupation numbers will be reassigned to an Aufbau configuration
             **** ENERGY FILE WAS UPDATED (tests/NonBR.en.tmp) ****
Finished Guess after   0.3 sec
Maximum memory used throughout the entire GUESS-calculation: 57.7 MB


           ************************************************************
           *        Program running with 8 parallel MPI-processes     *
           *              working on a common directory               *
           ************************************************************
--------------------
CPCM SOLVATION MODEL
--------------------
CPCM parameters:
  Epsilon                                         ...      80.1510
  Refrac                                          ...       1.3328
  Rsolv                                           ...       1.3000
  Surface type                                    ... GAUSSIAN VDW
  Discretization scheme                           ... Constant charge density
    Threshold for H atoms                         ...       5.0000 (charges/Ang^2)
    Threshold for non-H atoms                     ...       5.0000 (charges/Ang^2)
  Epsilon function type                           ...         CPCM
Solvent:                                          ... WATER
Radii:
  Scheme                                          ... Element-dependent radii
  Radius for C  used is    3.8550 Bohr (=   2.0400 Ang.)
  Radius for O  used is    3.4469 Bohr (=   1.8240 Ang.)
  Radius for H  used is    2.4944 Bohr (=   1.3200 Ang.)
Calculating surface                               ...        done! (  0.0s)
Cavity surface points                             ...         4847
Cavity Volume                                     ...    3312.4802
Cavity Surface-area                               ...    1662.9674
Calculating surface distance matrix               ...        done! (  0.1s)
Performing Cholesky decomposition & store         ...        done! (  0.7s)
Overall time for CPCM initialization              ...                 0.8s

----------------------------------------D-I-I-S--------------------------------------------
Iteration    Energy (Eh)           Delta-E    RMSDP     MaxDP     DIISErr   Damp  Time(sec)
-------------------------------------------------------------------------------------------
               ***  Starting incremental Fock matrix formation  ***
    1    -1271.2640495497498705     0.00e+00  7.68e-03  2.12e-01  6.56e-02  0.700  14.1
    2    -1271.2677476355588624    -3.70e-03  6.66e-03  1.65e-01  4.63e-02  0.700   7.2
                               ***Turning on AO-DIIS***
    3    -1271.2707253208327529    -2.98e-03  5.12e-03  1.44e-01  3.25e-02  0.700   7.1
    4    -1271.2729944953039194    -2.27e-03  1.24e-02  4.03e-01  2.27e-02  0.000   7.1
                              *** Initializing SOSCF ***
---------------------------------------S-O-S-C-F--------------------------------------
Iteration    Energy (Eh)           Delta-E    RMSDP     MaxDP     MaxGrad    Time(sec)
--------------------------------------------------------------------------------------
    5    -1271.2790317749727365    -6.04e-03  1.42e-03  4.13e-02  1.63e-03     7.6
               *** Restarting incremental Fock matrix formation ***
    6    -1271.2790888687536608    -5.71e-05  2.40e-03  6.99e-02  3.17e-04    14.9
    7    -1271.2791092491743257    -2.04e-05  9.33e-04  2.62e-02  1.10e-04     9.9
